Program Version,EnergyPlus, Version 9.6.0-4b123cf80f, YMD=2022.03.15 13:09
1,5,Environment Title[],Latitude[deg],Longitude[deg],Time Zone[],Elevation[m]
2,8,Day of Simulation[],Month[],Day of Month[],DST Indicator[1=yes 0=no],Hour[],StartMinute[],EndMinute[],DayType
3,5,Cumulative Day of Simulation[],Month[],Day of Month[],DST Indicator[1=yes 0=no],DayType  ! When Daily Report Variables Requested
4,2,Cumulative Days of Simulation[],Month[]  ! When Monthly Report Variables Requested
5,1,Cumulative Days of Simulation[] ! When Run Period Report Variables Requested
6,1,Calendar Year of Simulation[] ! When Annual Report Variables Requested
7,9,Environment,Site Outdoor Air Drybulb Temperature [C] !Monthly [Value,Min,Day,Hour,Minute,Max,Day,Hour,Minute]
337,1,TEST RENAME,Zone Air Temperature [C] !Hourly
338,1,TEST RENAME,Zone Air Relative Humidity [%] !Hourly
9,1,Electricity:Facility [J] !TimeStep
End of Data Dictionary
1,DENVER CENTENNIAL  GOLDEN   N ANN CLG .4% CONDNS DB=>MWB,  39.83,-104.65,  -7.00,1650.00
2,1, 7,21, 0, 1, 0.00,60.00,SummerDesignDay
9,10778386.451303212
2,1, 7,21, 0, 1, 0.00,60.00,SummerDesignDay
337,25.54595411741164
338,47.92336079451896
2,1, 7,21, 0, 2, 0.00,60.00,SummerDesignDay
9,9634964.260075716
2,1, 7,21, 0, 2, 0.00,60.00,SummerDesignDay
337,25.104429409972532
338,46.27605363866719
2,1, 7,21, 0, 3, 0.00,60.00,SummerDesignDay
9,10550209.505078144
2,1, 7,21, 0, 3, 0.00,60.00,SummerDesignDay
337,24.96780725588602
338,42.46783611278821
2,1, 7,21, 0, 4, 0.00,60.00,SummerDesignDay
9,10493994.534427209
2,1, 7,21, 0, 4, 0.00,60.00,SummerDesignDay
337,24.77286611540624
338,38.19566320003958
2,1, 7,21, 0, 5, 0.00,60.00,SummerDesignDay
9,10258722.55611679
2,1, 7,21, 0, 5, 0.00,60.00,SummerDesignDay
337,24.52015502218186
338,34.87537299625008
2,1, 7,21, 0, 6, 0.00,60.00,SummerDesignDay
9,9637823.451679925
2,1, 7,21, 0, 6, 0.00,60.00,SummerDesignDay
337,24.233363802311562
338,32.90576896485582
2,1, 7,21, 0, 7, 0.00,60.00,SummerDesignDay
9,10459698.560769234
2,1, 7,21, 0, 7, 0.00,60.00,SummerDesignDay
337,25.147478685230396
338,33.89720815595875
2,1, 7,21, 0, 8, 0.00,60.00,SummerDesignDay
9,10442600.013453646
2,1, 7,21, 0, 8, 0.00,60.00,SummerDesignDay
337,25.309603276710337
338,38.31942833198025
2,1, 7,21, 0, 9, 0.00,60.00,SummerDesignDay
9,10534554.563021312
2,1, 7,21, 0, 9, 0.00,60.00,SummerDesignDay
337,25.364886658199286
338,42.92033318557395
2,1, 7,21, 0,10, 0.00,60.00,SummerDesignDay
9,10526996.092037689
2,1, 7,21, 0,10, 0.00,60.00,SummerDesignDay
337,25.44922342444186
338,46.81091505363035
2,1, 7,21, 0,11, 0.00,60.00,SummerDesignDay
9,9149269.079094948
2,1, 7,21, 0,11, 0.00,60.00,SummerDesignDay
337,25.29883609805278
338,50.79139604446162
2,1, 7,21, 0,12, 0.00,60.00,SummerDesignDay
9,9196272.339178512
2,1, 7,21, 0,12, 0.00,60.00,SummerDesignDay
337,25.316074876433504
338,53.80257466248414
2,1, 7,21, 0,13, 0.00,60.00,SummerDesignDay
9,9384560.561525684
2,1, 7,21, 0,13, 0.00,60.00,SummerDesignDay
337,25.4536627038678
338,56.03587491034915
2,1, 7,21, 0,14, 0.00,60.00,SummerDesignDay
9,9797195.795153756
2,1, 7,21, 0,14, 0.00,60.00,SummerDesignDay
337,25.662429335490664
338,57.731103462840515
2,1, 7,21, 0,15, 0.00,60.00,SummerDesignDay
9,10666779.311891355
2,1, 7,21, 0,15, 0.00,60.00,SummerDesignDay
337,25.975772177089976
338,57.216149315847275
2,1, 7,21, 0,16, 0.00,60.00,SummerDesignDay
9,10845994.621896507
2,1, 7,21, 0,16, 0.00,60.00,SummerDesignDay
337,26.237141748255954
338,57.52753323044628
2,1, 7,21, 0,17, 0.00,60.00,SummerDesignDay
9,10109109.46605058
2,1, 7,21, 0,17, 0.00,60.00,SummerDesignDay
337,26.32398253589163
338,59.06005181651193
2,1, 7,21, 0,18, 0.00,60.00,SummerDesignDay
9,10652200.621783556
2,1, 7,21, 0,18, 0.00,60.00,SummerDesignDay
337,26.54883811146389
338,60.258073594424154
2,1, 7,21, 0,19, 0.00,60.00,SummerDesignDay
9,10859917.492946269
2,1, 7,21, 0,19, 0.00,60.00,SummerDesignDay
337,26.749031150314227
338,61.41955312892544
2,1, 7,21, 0,20, 0.00,60.00,SummerDesignDay
9,9635539.857302422
2,1, 7,21, 0,20, 0.00,60.00,SummerDesignDay
337,26.651613136520346
338,63.49210706319928
2,1, 7,21, 0,21, 0.00,60.00,SummerDesignDay
9,10414204.83145906
2,1, 7,21, 0,21, 0.00,60.00,SummerDesignDay
337,26.787619937240116
338,64.4693697163096
2,1, 7,21, 0,22, 0.00,60.00,SummerDesignDay
9,10427776.471153622
2,1, 7,21, 0,22, 0.00,60.00,SummerDesignDay
337,26.85166029097451
338,65.52975814041557
2,1, 7,21, 0,23, 0.00,60.00,SummerDesignDay
9,10139853.847962704
2,1, 7,21, 0,23, 0.00,60.00,SummerDesignDay
337,26.13066923606004
338,59.759660341105814
2,1, 7,21, 0,24, 0.00,60.00,SummerDesignDay
9,9134258.474161392
2,1, 7,21, 0,24, 0.00,60.00,SummerDesignDay
337,25.66485562620977
338,55.34395630626369
4,1, 7
7,24.849,17.8,21, 5,60,33.0,21,14,60
1,DENVER CENTENNIAL  GOLDEN   N ANN CLG .4% CONDNS DP=>MDB,  39.83,-104.65,  -7.00,1650.00
2,1, 7,21, 0, 1, 0.00,60.00,SummerDesignDay
9,10778386.451303212
2,1, 7,21, 0, 1, 0.00,60.00,SummerDesignDay
337,22.63389274607758
338,65.2990956544951
2,1, 7,21, 0, 2, 0.00,60.00,SummerDesignDay
9,9634964.260075716
2,1, 7,21, 0, 2, 0.00,60.00,SummerDesignDay
337,22.058765973671115
338,62.90089971084491
2,1, 7,21, 0, 3, 0.00,60.00,SummerDesignDay
9,10550209.505078144
2,1, 7,21, 0, 3, 0.00,60.00,SummerDesignDay
337,21.836335323142332
338,56.91929572010868
2,1, 7,21, 0, 4, 0.00,60.00,SummerDesignDay
9,10493994.534427209
2,1, 7,21, 0, 4, 0.00,60.00,SummerDesignDay
337,21.57954278900729
338,50.000893482674016
2,1, 7,21, 0, 5, 0.00,60.00,SummerDesignDay
9,10258722.55611679
2,1, 7,21, 0, 5, 0.00,60.00,SummerDesignDay
337,21.30452066342317
338,48.88369357442484
2,1, 7,21, 0, 6, 0.00,60.00,SummerDesignDay
9,9637823.451679925
2,1, 7,21, 0, 6, 0.00,60.00,SummerDesignDay
337,20.94067700008847
338,44.186411357598686
2,1, 7,21, 0, 7, 0.00,60.00,SummerDesignDay
9,10459698.560769234
2,1, 7,21, 0, 7, 0.00,60.00,SummerDesignDay
337,22.737855436276686
338,41.833777713630866
2,1, 7,21, 0, 8, 0.00,60.00,SummerDesignDay
9,10442600.013453646
2,1, 7,21, 0, 8, 0.00,60.00,SummerDesignDay
337,23.02184117509243
338,46.13278118691596
2,1, 7,21, 0, 9, 0.00,60.00,SummerDesignDay
9,10534554.563021312
2,1, 7,21, 0, 9, 0.00,60.00,SummerDesignDay
337,23.114041162683606
338,51.44907967208269
2,1, 7,21, 0,10, 0.00,60.00,SummerDesignDay
9,10526996.092037689
2,1, 7,21, 0,10, 0.00,60.00,SummerDesignDay
337,23.27114128279387
338,56.59930047524489
2,1, 7,21, 0,11, 0.00,60.00,SummerDesignDay
9,9149269.079094948
2,1, 7,21, 0,11, 0.00,60.00,SummerDesignDay
337,23.175270093423375
338,62.65995077723654
2,1, 7,21, 0,12, 0.00,60.00,SummerDesignDay
9,9196272.339178512
2,1, 7,21, 0,12, 0.00,60.00,SummerDesignDay
337,23.22631006002784
338,67.8142320594962
2,1, 7,21, 0,13, 0.00,60.00,SummerDesignDay
9,9384560.561525684
2,1, 7,21, 0,13, 0.00,60.00,SummerDesignDay
337,23.392786514314327
338,71.88872731734641
2,1, 7,21, 0,14, 0.00,60.00,SummerDesignDay
9,9797195.795153756
2,1, 7,21, 0,14, 0.00,60.00,SummerDesignDay
337,23.62715081060718
338,75.06417256456015
2,1, 7,21, 0,15, 0.00,60.00,SummerDesignDay
9,10666779.311891355
2,1, 7,21, 0,15, 0.00,60.00,SummerDesignDay
337,23.95922635006575
338,74.46379188556534
2,1, 7,21, 0,16, 0.00,60.00,SummerDesignDay
9,10845994.621896507
2,1, 7,21, 0,16, 0.00,60.00,SummerDesignDay
337,24.24195492851397
338,75.11498514290308
2,1, 7,21, 0,17, 0.00,60.00,SummerDesignDay
9,10109109.46605058
2,1, 7,21, 0,17, 0.00,60.00,SummerDesignDay
337,24.34759322025036
338,77.5932819906357
2,1, 7,21, 0,18, 0.00,60.00,SummerDesignDay
9,10652200.621783556
2,1, 7,21, 0,18, 0.00,60.00,SummerDesignDay
337,24.58488036348552
338,79.70013568931049
2,1, 7,21, 0,19, 0.00,60.00,SummerDesignDay
9,10859917.492946269
2,1, 7,21, 0,19, 0.00,60.00,SummerDesignDay
337,24.79512382904734
338,81.30302486967722
2,1, 7,21, 0,20, 0.00,60.00,SummerDesignDay
9,9635539.857302422
2,1, 7,21, 0,20, 0.00,60.00,SummerDesignDay
337,24.70751531917748
338,83.49129890409957
2,1, 7,21, 0,21, 0.00,60.00,SummerDesignDay
9,10414204.83145906
2,1, 7,21, 0,21, 0.00,60.00,SummerDesignDay
337,24.84869950698132
338,83.72981653882351
2,1, 7,21, 0,22, 0.00,60.00,SummerDesignDay
9,10427776.471153622
2,1, 7,21, 0,22, 0.00,60.00,SummerDesignDay
337,24.916555281089423
338,83.71918482149341
2,1, 7,21, 0,23, 0.00,60.00,SummerDesignDay
9,10139853.847962704
2,1, 7,21, 0,23, 0.00,60.00,SummerDesignDay
337,23.55735095571341
338,79.85136658866573
2,1, 7,21, 0,24, 0.00,60.00,SummerDesignDay
9,9134258.474161392
2,1, 7,21, 0,24, 0.00,60.00,SummerDesignDay
337,22.906485916778447
338,75.12228528059578
4,1, 7
7,12.048999999999998,5.0,21, 5,60,20.2,21,14,60
1,DENVER CENTENNIAL  GOLDEN   N ANN CLG .4% CONDNS ENTH=>MDB,  39.83,-104.65,  -7.00,1650.00
2,1, 7,21, 0, 1, 0.00,60.00,SummerDesignDay
9,10778386.451303212
2,1, 7,21, 0, 1, 0.00,60.00,SummerDesignDay
337,24.29823923669815
338,73.2133042926898
2,1, 7,21, 0, 2, 0.00,60.00,SummerDesignDay
9,9634964.260075716
2,1, 7,21, 0, 2, 0.00,60.00,SummerDesignDay
337,23.801782640376267
338,71.9126786375062
2,1, 7,21, 0, 3, 0.00,60.00,SummerDesignDay
9,10550209.505078144
2,1, 7,21, 0, 3, 0.00,60.00,SummerDesignDay
337,23.62969377611659
338,67.41438471134285
2,1, 7,21, 0, 4, 0.00,60.00,SummerDesignDay
9,10493994.534427209
2,1, 7,21, 0, 4, 0.00,60.00,SummerDesignDay
337,23.40906432005297
338,62.25848802199354
2,1, 7,21, 0, 5, 0.00,60.00,SummerDesignDay
9,10258722.55611679
2,1, 7,21, 0, 5, 0.00,60.00,SummerDesignDay
337,23.135165530943535
338,58.12086872602566
2,1, 7,21, 0, 6, 0.00,60.00,SummerDesignDay
9,9637823.451679925
2,1, 7,21, 0, 6, 0.00,60.00,SummerDesignDay
337,22.860369260598144
338,58.69997251507989
2,1, 7,21, 0, 7, 0.00,60.00,SummerDesignDay
9,10459698.560769234
2,1, 7,21, 0, 7, 0.00,60.00,SummerDesignDay
337,24.125165834891753
338,56.61903586734972
2,1, 7,21, 0, 8, 0.00,60.00,SummerDesignDay
9,10442600.013453646
2,1, 7,21, 0, 8, 0.00,60.00,SummerDesignDay
337,24.32409316505265
338,60.12598081681979
2,1, 7,21, 0, 9, 0.00,60.00,SummerDesignDay
9,10534554.563021312
2,1, 7,21, 0, 9, 0.00,60.00,SummerDesignDay
337,24.40141862977223
338,64.42612481935278
2,1, 7,21, 0,10, 0.00,60.00,SummerDesignDay
9,10526996.092037689
2,1, 7,21, 0,10, 0.00,60.00,SummerDesignDay
337,24.520454178404567
338,68.1831604646863
2,1, 7,21, 0,11, 0.00,60.00,SummerDesignDay
9,9149269.079094948
2,1, 7,21, 0,11, 0.00,60.00,SummerDesignDay
337,24.393479004786204
338,72.45566923782046
2,1, 7,21, 0,12, 0.00,60.00,SummerDesignDay
9,9196272.339178512
2,1, 7,21, 0,12, 0.00,60.00,SummerDesignDay
337,24.425325014605814
338,75.56726964804093
2,1, 7,21, 0,13, 0.00,60.00,SummerDesignDay
9,9384560.561525684
2,1, 7,21, 0,13, 0.00,60.00,SummerDesignDay
337,24.575560302728928
338,77.71871064391806
2,1, 7,21, 0,14, 0.00,60.00,SummerDesignDay
9,9797195.795153756
2,1, 7,21, 0,14, 0.00,60.00,SummerDesignDay
337,24.795496537511703
338,79.21848236934883
2,1, 7,21, 0,15, 0.00,60.00,SummerDesignDay
9,10666779.311891355
2,1, 7,21, 0,15, 0.00,60.00,SummerDesignDay
337,25.116774680848103
338,78.28780375968228
2,1, 7,21, 0,16, 0.00,60.00,SummerDesignDay
9,10845994.621896507
2,1, 7,21, 0,16, 0.00,60.00,SummerDesignDay
337,25.3871328200194
338,78.28194443490548
2,1, 7,21, 0,17, 0.00,60.00,SummerDesignDay
9,10109109.46605058
2,1, 7,21, 0,17, 0.00,60.00,SummerDesignDay
337,25.481854479671934
338,79.75448705076195
2,1, 7,21, 0,18, 0.00,60.00,SummerDesignDay
9,10652200.621783556
2,1, 7,21, 0,18, 0.00,60.00,SummerDesignDay
337,25.7116622113256
338,80.74242607011101
2,1, 7,21, 0,19, 0.00,60.00,SummerDesignDay
9,10859917.492946269
2,1, 7,21, 0,19, 0.00,60.00,SummerDesignDay
337,25.915747063191642
338,81.72508170007784
2,1, 7,21, 0,20, 0.00,60.00,SummerDesignDay
9,9635539.857302422
2,1, 7,21, 0,20, 0.00,60.00,SummerDesignDay
337,25.822285765578275
338,83.97394739291613
2,1, 7,21, 0,21, 0.00,60.00,SummerDesignDay
9,10414204.83145906
2,1, 7,21, 0,21, 0.00,60.00,SummerDesignDay
337,25.960093311560847
338,84.83999846914568
2,1, 7,21, 0,22, 0.00,60.00,SummerDesignDay
9,10427776.471153622
2,1, 7,21, 0,22, 0.00,60.00,SummerDesignDay
337,26.02543562385124
338,85.87142306748255
2,1, 7,21, 0,23, 0.00,60.00,SummerDesignDay
9,10139853.847962704
2,1, 7,21, 0,23, 0.00,60.00,SummerDesignDay
337,25.022034886783565
338,82.77089841337202
2,1, 7,21, 0,24, 0.00,60.00,SummerDesignDay
9,9134258.474161392
2,1, 7,21, 0,24, 0.00,60.00,SummerDesignDay
337,24.483376395492243
338,79.9435748770278
4,1, 7
7,19.149,12.100000000000001,21, 5,60,27.3,21,14,60
1,DENVER CENTENNIAL  GOLDEN   N ANN CLG .4% CONDNS WB=>MDB,  39.83,-104.65,  -7.00,1650.00
2,1, 7,21, 0, 1, 0.00,60.00,SummerDesignDay
9,10778386.451303212
2,1, 7,21, 0, 1, 0.00,60.00,SummerDesignDay
337,24.299464844766163
338,74.05968398104586
2,1, 7,21, 0, 2, 0.00,60.00,SummerDesignDay
9,9634964.260075716
2,1, 7,21, 0, 2, 0.00,60.00,SummerDesignDay
337,23.803025284286342
338,72.62308450972981
2,1, 7,21, 0, 3, 0.00,60.00,SummerDesignDay
9,10550209.505078144
2,1, 7,21, 0, 3, 0.00,60.00,SummerDesignDay
337,23.630946828162653
338,67.93088774761085
2,1, 7,21, 0, 4, 0.00,60.00,SummerDesignDay
9,10493994.534427209
2,1, 7,21, 0, 4, 0.00,60.00,SummerDesignDay
337,23.410317666591272
338,62.59032578131759
2,1, 7,21, 0, 5, 0.00,60.00,SummerDesignDay
9,10258722.55611679
2,1, 7,21, 0, 5, 0.00,60.00,SummerDesignDay
337,23.136391441449554
338,58.31777636432578
2,1, 7,21, 0, 6, 0.00,60.00,SummerDesignDay
9,9637823.451679925
2,1, 7,21, 0, 6, 0.00,60.00,SummerDesignDay
337,22.861551952052714
338,58.89184651128305
2,1, 7,21, 0, 7, 0.00,60.00,SummerDesignDay
9,10459698.560769234
2,1, 7,21, 0, 7, 0.00,60.00,SummerDesignDay
337,24.126363063598024
338,56.78731857712941
2,1, 7,21, 0, 8, 0.00,60.00,SummerDesignDay
9,10442600.013453646
2,1, 7,21, 0, 8, 0.00,60.00,SummerDesignDay
337,24.325204373404546
338,60.35341777865186
2,1, 7,21, 0, 9, 0.00,60.00,SummerDesignDay
9,10534554.563021312
2,1, 7,21, 0, 9, 0.00,60.00,SummerDesignDay
337,24.40244837151094
338,64.75117874290535
2,1, 7,21, 0,10, 0.00,60.00,SummerDesignDay
9,10526996.092037689
2,1, 7,21, 0,10, 0.00,60.00,SummerDesignDay
337,24.52142420241083
338,68.60761437525869
2,1, 7,21, 0,11, 0.00,60.00,SummerDesignDay
9,9149269.079094948
2,1, 7,21, 0,11, 0.00,60.00,SummerDesignDay
337,24.394404890117652
338,72.9749903272827
2,1, 7,21, 0,12, 0.00,60.00,SummerDesignDay
9,9196272.339178512
2,1, 7,21, 0,12, 0.00,60.00,SummerDesignDay
337,24.426225720358087
338,76.16410850559666
2,1, 7,21, 0,13, 0.00,60.00,SummerDesignDay
9,9384560.561525684
2,1, 7,21, 0,13, 0.00,60.00,SummerDesignDay
337,24.576458803834367
338,78.37722542361884
2,1, 7,21, 0,14, 0.00,60.00,SummerDesignDay
9,9797195.795153756
2,1, 7,21, 0,14, 0.00,60.00,SummerDesignDay
337,24.796409505209255
338,79.92618470483269
2,1, 7,21, 0,15, 0.00,60.00,SummerDesignDay
9,10666779.311891355
2,1, 7,21, 0,15, 0.00,60.00,SummerDesignDay
337,25.117710513161995
338,78.99327465589923
2,1, 7,21, 0,16, 0.00,60.00,SummerDesignDay
9,10845994.621896507
2,1, 7,21, 0,16, 0.00,60.00,SummerDesignDay
337,25.388102649886058
338,78.99961858311647
2,1, 7,21, 0,17, 0.00,60.00,SummerDesignDay
9,10109109.46605058
2,1, 7,21, 0,17, 0.00,60.00,SummerDesignDay
337,25.482862618938285
338,80.50485859662876
2,1, 7,21, 0,18, 0.00,60.00,SummerDesignDay
9,10652200.621783556
2,1, 7,21, 0,18, 0.00,60.00,SummerDesignDay
337,25.71270705404391
338,81.52257127643699
2,1, 7,21, 0,19, 0.00,60.00,SummerDesignDay
9,10859917.492946269
2,1, 7,21, 0,19, 0.00,60.00,SummerDesignDay
337,25.916831424025627
338,82.53290440958551
2,1, 7,21, 0,20, 0.00,60.00,SummerDesignDay
9,9635539.857302422
2,1, 7,21, 0,20, 0.00,60.00,SummerDesignDay
337,25.82340839841361
338,84.81916894161492
2,1, 7,21, 0,21, 0.00,60.00,SummerDesignDay
9,10414204.83145906
2,1, 7,21, 0,21, 0.00,60.00,SummerDesignDay
337,25.961248887154
338,85.70689091566528
2,1, 7,21, 0,22, 0.00,60.00,SummerDesignDay
9,10427776.471153622
2,1, 7,21, 0,22, 0.00,60.00,SummerDesignDay
337,26.02662872961178
338,86.75988725557676
2,1, 7,21, 0,23, 0.00,60.00,SummerDesignDay
9,10139853.847962704
2,1, 7,21, 0,23, 0.00,60.00,SummerDesignDay
337,25.023199688524976
338,83.75805404614741
2,1, 7,21, 0,24, 0.00,60.00,SummerDesignDay
9,9134258.474161392
2,1, 7,21, 0,24, 0.00,60.00,SummerDesignDay
337,24.484542654364454
338,80.99498684571358
4,1, 7
7,19.149,12.100000000000001,21, 5,60,27.3,21,14,60
1,DENVER CENTENNIAL  GOLDEN   N ANN HTG 99.6% CONDNS DB,  39.83,-104.65,  -7.00,1650.00
2,1,12,21, 0, 1, 0.00,60.00,WinterDesignDay
9,959762.5129207455
2,1,12,21, 0, 1, 0.00,60.00,WinterDesignDay
337,8.611382003990233
338,10.354857140584455
2,1,12,21, 0, 2, 0.00,60.00,WinterDesignDay
9,40651.36984249851
2,1,12,21, 0, 2, 0.00,60.00,WinterDesignDay
337,8.44852711272978
338,10.469807118455723
2,1,12,21, 0, 3, 0.00,60.00,WinterDesignDay
9,8237.176561145656
2,1,12,21, 0, 3, 0.00,60.00,WinterDesignDay
337,8.338369143720689
338,10.548370193122606
2,1,12,21, 0, 4, 0.00,60.00,WinterDesignDay
9,493176.05718636984
2,1,12,21, 0, 4, 0.00,60.00,WinterDesignDay
337,8.386972867074299
338,10.513625897544935
2,1,12,21, 0, 5, 0.00,60.00,WinterDesignDay
9,5591.701939494744
2,1,12,21, 0, 5, 0.00,60.00,WinterDesignDay
337,8.30475049633067
338,10.572477478845832
2,1,12,21, 0, 6, 0.00,60.00,WinterDesignDay
9,605426.0478896901
2,1,12,21, 0, 6, 0.00,60.00,WinterDesignDay
337,8.356769675609625
338,10.535201375922243
2,1,12,21, 0, 7, 0.00,60.00,WinterDesignDay
9,890011.7738292152
2,1,12,21, 0, 7, 0.00,60.00,WinterDesignDay
337,10.175764880370066
338,9.32735515581882
2,1,12,21, 0, 8, 0.00,60.00,WinterDesignDay
9,456995.2760262336
2,1,12,21, 0, 8, 0.00,60.00,WinterDesignDay
337,10.380529417521284
338,9.193591609119334
2,1,12,21, 0, 9, 0.00,60.00,WinterDesignDay
9,1545618.5683561116
2,1,12,21, 0, 9, 0.00,60.00,WinterDesignDay
337,10.983431177472497
338,8.831226872141489
2,1,12,21, 0,10, 0.00,60.00,WinterDesignDay
9,1318372.9757992127
2,1,12,21, 0,10, 0.00,60.00,WinterDesignDay
337,11.216701395634766
338,8.695260306830104
2,1,12,21, 0,11, 0.00,60.00,WinterDesignDay
9,805298.6853486818
2,1,12,21, 0,11, 0.00,60.00,WinterDesignDay
337,11.24365256234902
338,8.67972589515119
2,1,12,21, 0,12, 0.00,60.00,WinterDesignDay
9,757441.8976922267
2,1,12,21, 0,12, 0.00,60.00,WinterDesignDay
337,11.301466905870813
338,8.646507240893023
2,1,12,21, 0,13, 0.00,60.00,WinterDesignDay
9,1098877.5030280692
2,1,12,21, 0,13, 0.00,60.00,WinterDesignDay
337,11.43040978727188
338,8.572931136589096
2,1,12,21, 0,14, 0.00,60.00,WinterDesignDay
9,66195.62263531362
2,1,12,21, 0,14, 0.00,60.00,WinterDesignDay
337,11.321087213738034
338,8.635266172497781
2,1,12,21, 0,15, 0.00,60.00,WinterDesignDay
9,216124.8406568987
2,1,12,21, 0,15, 0.00,60.00,WinterDesignDay
337,11.31358214138973
338,8.639564022066825
2,1,12,21, 0,16, 0.00,60.00,WinterDesignDay
9,1511485.775986986
2,1,12,21, 0,16, 0.00,60.00,WinterDesignDay
337,11.571626757397201
338,8.493154444195909
2,1,12,21, 0,17, 0.00,60.00,WinterDesignDay
9,734643.4821830043
2,1,12,21, 0,17, 0.00,60.00,WinterDesignDay
337,11.536079154206094
338,8.513157552676928
2,1,12,21, 0,18, 0.00,60.00,WinterDesignDay
9,207235.74771549518
2,1,12,21, 0,18, 0.00,60.00,WinterDesignDay
337,11.416927294690355
338,8.58059150952999
2,1,12,21, 0,19, 0.00,60.00,WinterDesignDay
9,732155.22482725
2,1,12,21, 0,19, 0.00,60.00,WinterDesignDay
337,9.793828388952782
338,9.566546142530422
2,1,12,21, 0,20, 0.00,60.00,WinterDesignDay
9,1511715.3980049733
2,1,12,21, 0,20, 0.00,60.00,WinterDesignDay
337,9.55134433829699
338,9.719017462664077
2,1,12,21, 0,21, 0.00,60.00,WinterDesignDay
9,535262.643524923
2,1,12,21, 0,21, 0.00,60.00,WinterDesignDay
337,9.015660142853871
338,10.075704256229763
2,1,12,21, 0,22, 0.00,60.00,WinterDesignDay
9,1747253.3678041191
2,1,12,21, 0,22, 0.00,60.00,WinterDesignDay
337,9.0041986018357
338,10.083352182912236
2,1,12,21, 0,23, 0.00,60.00,WinterDesignDay
9,740379.6500362989
2,1,12,21, 0,23, 0.00,60.00,WinterDesignDay
337,8.809035008535204
338,10.217236074071621
2,1,12,21, 0,24, 0.00,60.00,WinterDesignDay
9,202701.42913992907
2,1,12,21, 0,24, 0.00,60.00,WinterDesignDay
337,8.571116272425634
338,10.383146457902317
4,1,12
7,-18.800000000000008,-18.8,21, 1,60,-18.8,21, 1,60
1,DENVER CENTENNIAL  GOLDEN   N ANN HTG WIND 99.6% CONDNS WS=>MCDB,  39.83,-104.65,  -7.00,1650.00
2,1,12,21, 0, 1, 0.00,60.00,WinterDesignDay
9,959762.5129207455
2,1,12,21, 0, 1, 0.00,60.00,WinterDesignDay
337,14.415430516568476
338,49.185996611568875
2,1,12,21, 0, 2, 0.00,60.00,WinterDesignDay
9,40651.36984249851
2,1,12,21, 0, 2, 0.00,60.00,WinterDesignDay
337,14.273100230344356
338,49.64127896650342
2,1,12,21, 0, 3, 0.00,60.00,WinterDesignDay
9,8237.176561145656
2,1,12,21, 0, 3, 0.00,60.00,WinterDesignDay
337,14.153981253472713
338,50.02594736927768
2,1,12,21, 0, 4, 0.00,60.00,WinterDesignDay
9,493176.05718636984
2,1,12,21, 0, 4, 0.00,60.00,WinterDesignDay
337,14.233890312864613
338,49.76753137932574
2,1,12,21, 0, 5, 0.00,60.00,WinterDesignDay
9,5591.701939494744
2,1,12,21, 0, 5, 0.00,60.00,WinterDesignDay
337,14.167095583159727
338,49.98343527919972
2,1,12,21, 0, 6, 0.00,60.00,WinterDesignDay
9,605426.0478896901
2,1,12,21, 0, 6, 0.00,60.00,WinterDesignDay
337,14.24508853614102
338,49.731437921646496
2,1,12,21, 0, 7, 0.00,60.00,WinterDesignDay
9,890011.7738292152
2,1,12,21, 0, 7, 0.00,60.00,WinterDesignDay
337,15.105000064073591
338,47.054885562512666
2,1,12,21, 0, 8, 0.00,60.00,WinterDesignDay
9,456995.2760262336
2,1,12,21, 0, 8, 0.00,60.00,WinterDesignDay
337,15.308757143120937
338,46.43316018309471
2,1,12,21, 0, 9, 0.00,60.00,WinterDesignDay
9,1545618.5683561116
2,1,12,21, 0, 9, 0.00,60.00,WinterDesignDay
337,15.565244300167668
338,45.67503490330816
2,1,12,21, 0,10, 0.00,60.00,WinterDesignDay
9,1318372.9757992127
2,1,12,21, 0,10, 0.00,60.00,WinterDesignDay
337,15.664478384710053
338,45.385453278235374
2,1,12,21, 0,11, 0.00,60.00,WinterDesignDay
9,805298.6853486818
2,1,12,21, 0,11, 0.00,60.00,WinterDesignDay
337,15.60190011573831
338,45.5678260797131
2,1,12,21, 0,12, 0.00,60.00,WinterDesignDay
9,757441.8976922267
2,1,12,21, 0,12, 0.00,60.00,WinterDesignDay
337,15.58787027231396
338,45.60882666941733
2,1,12,21, 0,13, 0.00,60.00,WinterDesignDay
9,1098877.5030280692
2,1,12,21, 0,13, 0.00,60.00,WinterDesignDay
337,15.687322248812633
338,45.31908325004827
2,1,12,21, 0,14, 0.00,60.00,WinterDesignDay
9,66195.62263531362
2,1,12,21, 0,14, 0.00,60.00,WinterDesignDay
337,15.513702516494915
338,45.82626016779698
2,1,12,21, 0,15, 0.00,60.00,WinterDesignDay
9,216124.8406568987
2,1,12,21, 0,15, 0.00,60.00,WinterDesignDay
337,15.452953695204702
338,46.005221582437436
2,1,12,21, 0,16, 0.00,60.00,WinterDesignDay
9,1511485.775986986
2,1,12,21, 0,16, 0.00,60.00,WinterDesignDay
337,15.790216606502636
338,45.02229487731313
2,1,12,21, 0,17, 0.00,60.00,WinterDesignDay
9,734643.4821830043
2,1,12,21, 0,17, 0.00,60.00,WinterDesignDay
337,15.724584991023692
338,45.2110553058027
2,1,12,21, 0,18, 0.00,60.00,WinterDesignDay
9,207235.74771549518
2,1,12,21, 0,18, 0.00,60.00,WinterDesignDay
337,15.542137608663404
338,45.742762355714625
2,1,12,21, 0,19, 0.00,60.00,WinterDesignDay
9,732155.22482725
2,1,12,21, 0,19, 0.00,60.00,WinterDesignDay
337,14.88243861812379
338,47.729980947360424
2,1,12,21, 0,20, 0.00,60.00,WinterDesignDay
9,1511715.3980049733
2,1,12,21, 0,20, 0.00,60.00,WinterDesignDay
337,14.762521966052995
338,48.09523375751283
2,1,12,21, 0,21, 0.00,60.00,WinterDesignDay
9,535262.643524923
2,1,12,21, 0,21, 0.00,60.00,WinterDesignDay
337,14.564937930327828
338,48.71279182895118
2,1,12,21, 0,22, 0.00,60.00,WinterDesignDay
9,1747253.3678041191
2,1,12,21, 0,22, 0.00,60.00,WinterDesignDay
337,14.71822303779639
338,48.23292520458695
2,1,12,21, 0,23, 0.00,60.00,WinterDesignDay
9,740379.6500362989
2,1,12,21, 0,23, 0.00,60.00,WinterDesignDay
337,14.566528791851331
338,48.7077845566609
2,1,12,21, 0,24, 0.00,60.00,WinterDesignDay
9,202701.42913992907
2,1,12,21, 0,24, 0.00,60.00,WinterDesignDay
337,14.324336632962268
338,49.476842261093026
4,1,12
7,3.900000000000001,3.9,21, 1,60,3.9,21, 1,60
1,DENVER CENTENNIAL  GOLDEN   N ANN HUM_N 99.6% CONDNS DP=>MCDB,  39.83,-104.65,  -7.00,1650.00
2,1,12,21, 0, 1, 0.00,60.00,WinterDesignDay
9,959762.5129207455
2,1,12,21, 0, 1, 0.00,60.00,WinterDesignDay
337,10.529995036656917
338,6.016816997849386
2,1,12,21, 0, 2, 0.00,60.00,WinterDesignDay
9,40651.36984249851
2,1,12,21, 0, 2, 0.00,60.00,WinterDesignDay
337,10.375689326102098
338,6.079117399989096
2,1,12,21, 0, 3, 0.00,60.00,WinterDesignDay
9,8237.176561145656
2,1,12,21, 0, 3, 0.00,60.00,WinterDesignDay
337,10.268504216388665
338,6.1228177361104015
2,1,12,21, 0, 4, 0.00,60.00,WinterDesignDay
9,493176.05718636984
2,1,12,21, 0, 4, 0.00,60.00,WinterDesignDay
337,10.327922019333805
338,6.098549281059983
2,1,12,21, 0, 5, 0.00,60.00,WinterDesignDay
9,5591.701939494744
2,1,12,21, 0, 5, 0.00,60.00,WinterDesignDay
337,10.249762595359169
338,6.130494925709114
2,1,12,21, 0, 6, 0.00,60.00,WinterDesignDay
9,605426.0478896901
2,1,12,21, 0, 6, 0.00,60.00,WinterDesignDay
337,10.308233458130035
338,6.106578910366718
2,1,12,21, 0, 7, 0.00,60.00,WinterDesignDay
9,890011.7738292152
2,1,12,21, 0, 7, 0.00,60.00,WinterDesignDay
337,11.788880485694
338,5.537504083270803
2,1,12,21, 0, 8, 0.00,60.00,WinterDesignDay
9,456995.2760262336
2,1,12,21, 0, 8, 0.00,60.00,WinterDesignDay
337,11.926746307134417
338,5.484487355348621
2,1,12,21, 0, 9, 0.00,60.00,WinterDesignDay
9,1545618.5683561116
2,1,12,21, 0, 9, 0.00,60.00,WinterDesignDay
337,12.45976367335444
338,5.2952583362425
2,1,12,21, 0,10, 0.00,60.00,WinterDesignDay
9,1318372.9757992127
2,1,12,21, 0,10, 0.00,60.00,WinterDesignDay
337,12.647269836845746
338,5.230360974646783
2,1,12,21, 0,11, 0.00,60.00,WinterDesignDay
9,805298.6853486818
2,1,12,21, 0,11, 0.00,60.00,WinterDesignDay
337,12.637856292065592
338,5.233592375019936
2,1,12,21, 0,12, 0.00,60.00,WinterDesignDay
9,757441.8976922267
2,1,12,21, 0,12, 0.00,60.00,WinterDesignDay
337,12.669752459022599
338,5.222652595916719
2,1,12,21, 0,13, 0.00,60.00,WinterDesignDay
9,1098877.5030280692
2,1,12,21, 0,13, 0.00,60.00,WinterDesignDay
337,12.784689109488513
338,5.183443366157118
2,1,12,21, 0,14, 0.00,60.00,WinterDesignDay
9,66195.62263531362
2,1,12,21, 0,14, 0.00,60.00,WinterDesignDay
337,12.654880300222931
338,5.227750251796704
2,1,12,21, 0,15, 0.00,60.00,WinterDesignDay
9,216124.8406568987
2,1,12,21, 0,15, 0.00,60.00,WinterDesignDay
337,12.632032859016418
338,5.235592537177128
2,1,12,21, 0,16, 0.00,60.00,WinterDesignDay
9,1511485.775986986
2,1,12,21, 0,16, 0.00,60.00,WinterDesignDay
337,12.895924570958565
338,5.145810579345721
2,1,12,21, 0,17, 0.00,60.00,WinterDesignDay
9,734643.4821830043
2,1,12,21, 0,17, 0.00,60.00,WinterDesignDay
337,12.853628021050335
338,5.160084099206426
2,1,12,21, 0,18, 0.00,60.00,WinterDesignDay
9,207235.74771549518
2,1,12,21, 0,18, 0.00,60.00,WinterDesignDay
337,12.719090886016028
338,5.2057808872475935
2,1,12,21, 0,19, 0.00,60.00,WinterDesignDay
9,732155.22482725
2,1,12,21, 0,19, 0.00,60.00,WinterDesignDay
337,11.443709077573855
338,5.664196428125466
2,1,12,21, 0,20, 0.00,60.00,WinterDesignDay
9,1511715.3980049733
2,1,12,21, 0,20, 0.00,60.00,WinterDesignDay
337,11.295781527783685
338,5.718230996065383
2,1,12,21, 0,21, 0.00,60.00,WinterDesignDay
9,535262.643524923
2,1,12,21, 0,21, 0.00,60.00,WinterDesignDay
337,10.828518671530496
338,5.89839406549405
2,1,12,21, 0,22, 0.00,60.00,WinterDesignDay
9,1747253.3678041191
2,1,12,21, 0,22, 0.00,60.00,WinterDesignDay
337,10.869475134252204
338,5.882253019262822
2,1,12,21, 0,23, 0.00,60.00,WinterDesignDay
9,740379.6500362989
2,1,12,21, 0,23, 0.00,60.00,WinterDesignDay
337,10.699507954349194
338,5.949199234369754
2,1,12,21, 0,24, 0.00,60.00,WinterDesignDay
9,202701.42913992907
2,1,12,21, 0,24, 0.00,60.00,WinterDesignDay
337,10.470073992290345
338,6.040924707928004
4,1,12
7,-10.900000000000004,-10.9,21, 1,60,-10.9,21, 1,60
1,RUN PERIOD 1,  39.83,-104.65,  -7.00,1650.00
2,1, 1, 1, 0, 1, 0.00,60.00,Tuesday
9,1411742.5155314717
2,1, 1, 1, 0, 1, 0.00,60.00,Tuesday
337,11.640596905548897
338,16.035102069313588
2,1, 1, 1, 0, 2, 0.00,60.00,Tuesday
9,1068334.389508682
2,1, 1, 1, 0, 2, 0.00,60.00,Tuesday
337,11.02153627174738
338,13.163684121475683
2,1, 1, 1, 0, 3, 0.00,60.00,Tuesday
9,619426.8101481406
2,1, 1, 1, 0, 3, 0.00,60.00,Tuesday
337,10.656220100407836
338,12.823602023401751
2,1, 1, 1, 0, 4, 0.00,60.00,Tuesday
9,1890639.1411793805
2,1, 1, 1, 0, 4, 0.00,60.00,Tuesday
337,10.647859026701875
338,12.262598349711258
2,1, 1, 1, 0, 5, 0.00,60.00,Tuesday
9,2217585.662597334
2,1, 1, 1, 0, 5, 0.00,60.00,Tuesday
337,10.603989546023215
338,11.379170887605483
2,1, 1, 1, 0, 6, 0.00,60.00,Tuesday
9,1438942.8386416398
2,1, 1, 1, 0, 6, 0.00,60.00,Tuesday
337,10.342396125569106
338,10.724574996049382
2,1, 1, 1, 0, 7, 0.00,60.00,Tuesday
9,2085510.1969998148
2,1, 1, 1, 0, 7, 0.00,60.00,Tuesday
337,12.276220976397774
338,9.471212971908791
2,1, 1, 1, 0, 8, 0.00,60.00,Tuesday
9,4021503.8535407456
2,1, 1, 1, 0, 8, 0.00,60.00,Tuesday
337,13.007487003193791
338,9.101848481757026
2,1, 1, 1, 0, 9, 0.00,60.00,Tuesday
9,9859888.710611597
2,1, 1, 1, 0, 9, 0.00,60.00,Tuesday
337,15.127760153290287
338,8.82860481884964
2,1, 1, 1, 0,10, 0.00,60.00,Tuesday
9,9501484.80193852
2,1, 1, 1, 0,10, 0.00,60.00,Tuesday
337,15.654127957097897
338,9.660813054872389
2,1, 1, 1, 0,11, 0.00,60.00,Tuesday
9,8813081.945585052
2,1, 1, 1, 0,11, 0.00,60.00,Tuesday
337,16.19793349803801
338,10.390193725342856
2,1, 1, 1, 0,12, 0.00,60.00,Tuesday
9,9221871.671155749
2,1, 1, 1, 0,12, 0.00,60.00,Tuesday
337,16.777305219191675
338,11.146760237823369
2,1, 1, 1, 0,13, 0.00,60.00,Tuesday
9,9045950.305938568
2,1, 1, 1, 0,13, 0.00,60.00,Tuesday
337,16.84869635993518
338,12.09222914436844
2,1, 1, 1, 0,14, 0.00,60.00,Tuesday
9,9423921.792245144
2,1, 1, 1, 0,14, 0.00,60.00,Tuesday
337,17.42472030343646
338,12.610826247599249
2,1, 1, 1, 0,15, 0.00,60.00,Tuesday
9,9908636.657451278
2,1, 1, 1, 0,15, 0.00,60.00,Tuesday
337,17.89672351125016
338,14.611864267402222
2,1, 1, 1, 0,16, 0.00,60.00,Tuesday
9,9680870.139656505
2,1, 1, 1, 0,16, 0.00,60.00,Tuesday
337,18.188770901818604
338,16.87134540242405
2,1, 1, 1, 0,17, 0.00,60.00,Tuesday
9,8903962.16718633